LAMMPS protain data file

         168  atoms
         222  bonds
           0  angles
           0  dihedrals
           0  impropers

           5  atom types
           5  bond types
           0  angle types
           0  dihedral types
           0  improper types

-1000.0	1000.0	xlo xhi
-1000.0	1000.0	ylo yhi
-1000.0	1000.0	zlo zhi

Masses

           1	27.0
           2	14.0
           3	28.0
           4	60.0
           5	2.0

Atoms

           1	1	1	1	0.0	0.64200002	-12.61200047	3.27699995
           2	1	1	3	0.0	1.86899996	-10.55099964	3.40199995
           3	1	1	4	0.0	-0.69999999	-12.17800045	3.8670001
           4	1	2	1	0.0	2.08200002	-10.26299953	0.65399998
           5	1	2	3	0.0	0.022	-9.22399998	-0.01
           6	1	2	4	0.0	2.58500004	-10.72999954	-0.713
           7	1	3	1	0.0	0.79400003	-6.68499994	0.78200001
           8	1	3	3	0.0	2.60700011	-5.20100021	0.25299999
           9	1	3	4	0.0	0.493	-6.1170001	2.17199993
          10	1	4	1	0.0	1.426	-4.23199987	-2.05999994
          11	1	4	3	0.0	-0.317	-2.78399992	-1.26699996
          12	1	4	4	0.0	1.255	-4.66400003	-3.51699996
          13	1	5	1	0.0	0.91000003	-0.463	-2.13100004
          14	1	5	3	0.0	2.24300003	0.40200001	-3.93000007
          15	1	5	4	0.0	1.55900002	0.227	-0.92900002
          16	1	6	1	0.0	0.19499999	1.94400001	-4.98199987
          17	1	6	3	0.0	-1.80700004	3.25200009	-4.76800013
          18	1	6	4	0.0	-0.322	1.25800002	-6.26800013
          19	1	7	1	0.0	-0.48699999	5.625	-4.28800011
          20	1	7	3	0.0	0.73100001	6.65899992	-6.07399988
          21	1	7	4	0.0	0.096	6.27400017	-3.0309999
          22	1	8	1	0.0	-1.40400004	8.20100021	-6.92999983
          23	1	8	3	0.0	-2.95499992	9.80200005	-6.03900003
          24	1	8	4	0.0	-2.33400011	7.71700001	-8.04399967
          25	1	9	1	0.0	-1.16900003	11.9119997	-6.15899992
          26	1	9	3	0.0	-0.70599997	13.81000042	-7.55600023
          27	1	9	4	0.0	-1.00600004	12.06299973	-4.64499998
          28	1	10	1	0.0	2.046	13.55200005	-7.36899996
          29	1	10	3	0.0	1.33299994	12.52400017	-9.41899967
          30	1	10	4	0.0	3.40400004	13.40699959	-6.68200016
          31	1	11	1	0.0	3.46399999	13.48799992	-10.90400028
          32	1	11	3	0.0	3.06299996	11.58500004	-12.31200027
          33	1	11	4	0.0	4.8039999	14.09300041	-11.33100033
          34	1	12	1	0.0	3.8599999	9.7489996	-10.39599991
          35	1	12	3	0.0	3.1400001	9.67399979	-8.10900021
          36	1	12	4	0.0	5.27899981	9.26599979	-10.65600014
          37	1	13	1	0.0	2.38000011	7.01599979	-8.20400047
          38	1	13	3	0.0	4.62400007	6.2579999	-7.8130002
          39	1	13	4	0.0	1.41999996	5.9460001	-8.73099995
          40	1	14	1	0.0	4.09600019	5.28999996	-5.27699995
          41	1	14	3	0.0	2.94799995	3.24499989	-5.77400017
          42	1	14	4	0.0	3.89299989	5.7579999	-3.83500004
          43	1	15	1	0.0	5.05000019	1.62100005	-4.9749999
          44	1	15	3	0.0	6.89900017	1.59899998	-3.44400001
          45	1	15	4	0.0	5.64099979	1.11899996	-6.29500008
          46	1	16	1	0.0	6.01800013	-0.639	-2.07299995
          47	1	16	3	0.0	4.36100006	-2.37800002	-2.09100008
          48	1	16	4	0.0	5.79699993	0.17900001	-0.81
          49	1	17	1	0.0	6.10699987	-4.34299994	-1.20799994
          50	1	17	3	0.0	7.46500015	-4.60599995	0.75400001
          51	1	17	4	0.0	6.92399979	-5.28299999	-2.11599994
          52	1	18	1	0.0	5.39400005	-5.59200001	2.30900002
          53	1	18	3	0.0	3.30699992	-6.76300001	2.50999999
          54	1	18	4	0.0	4.96700001	-4.44199991	3.22199988
          55	1	19	1	0.0	4.49499989	-9.17000008	3.204
          56	1	19	3	0.0	5.61199999	-9.88700008	5.20499992
          57	1	19	4	0.0	5.0999999	-10.32299995	2.4000001
          58	1	20	1	0.0	3.3829999	-9.51900005	6.81500006
          59	1	20	3	0.0	2.47199988	-11.64900017	6.18300009
          60	1	20	4	0.0	2.55200005	-8.43000031	7.49700022
          61	1	21	1	0.0	2.05900002	-12.48400021	8.79500008
          62	1	21	3	0.0	0.036	-13.6239996	8.18799973
          63	1	21	4	0.0	2.27900004	-12.73700047	10.29800034
          64	1	22	1	0.0	-1.53900003	-11.35299969	8.31799984
          65	1	22	3	0.0	-1.05900002	-9.77400017	6.57200003
          66	1	22	4	0.0	-2.30699992	-11.25899982	9.64099979
          67	1	23	1	0.0	-3.4920001	-8.4659996	6.77099991
          68	1	23	3	0.0	-4.16800022	-6.19099998	7.1170001
          69	1	23	4	0.0	-4.70200014	-8.85200024	5.93400002
          70	1	24	1	0.0	-3.9690001	-6.29400015	9.85000038
          71	1	24	3	0.0	-2.69899988	-4.27400017	9.73200035
          72	1	24	5	0.0	-4.74376427	-5.3748144	9.91664639
          73	1	25	1	0.0	-0.495	-5.34299994	11.03499985
          74	1	25	3	0.0	0.70700002	-3.66400003	9.80599976
          75	1	25	4	0.0	0.52100003	-6.30100012	11.66100025
          76	1	26	1	0.0	0.33700001	-4.90700006	7.35200024
          77	1	26	3	0.0	-0.132	-2.88199997	6.15600014
          78	1	26	4	0.0	0.44499999	-6.05700016	6.36100006
          79	1	27	1	0.0	-2.85400009	-2.96300006	6.64300013
          80	1	27	3	0.0	-2.92600012	-0.57099998	6.86299992
          81	1	27	4	0.0	-4.27799988	-3.50200009	6.81500006
          82	1	28	1	0.0	-2.07999992	-0.57700002	9.50300026
          83	1	28	3	0.0	-0.74000001	1.32799995	8.92399979
          84	1	28	4	0.0	-2.0940001	-0.97299999	10.97900009
          85	1	29	1	0.0	1.63699996	-0.098	8.83500004
          86	1	29	3	0.0	2.16499996	1.73500001	7.375
          87	1	29	4	0.0	2.68199992	-1.21599996	8.80500031
          88	1	30	1	0.0	0.89399999	0.625	5.17500019
          89	1	30	3	0.0	0.35100001	2.87599993	4.54400015
          90	1	30	4	0.0	0.29800001	-0.38100001	4.18200016
          91	1	31	1	0.0	-1.90699995	3.00699997	6.13399982
          92	1	31	3	0.0	-1.41499996	5.329	6.49800014
          93	1	31	4	0.0	-3.16000009	2.62899995	6.92399979
          94	1	32	1	0.0	0.442	4.83699989	8.4989996
          95	1	32	3	0.0	1.28499997	6.78999996	7.38100004
          96	1	32	4	0.0	1.22399998	4.18200016	9.64000034
          97	1	33	1	0.0	3.31699991	5.42600012	6.07700014
          98	1	33	3	0.0	2.99399996	7.22300005	4.51599979
          99	1	33	4	0.0	4.30000019	4.36000013	5.54899979
         100	1	34	1	0.0	0.91900003	5.97300005	3.171
         101	1	34	3	0.0	0.472	8.30300045	2.80500007
         102	1	34	4	0.0	-0.139	4.98500013	2.70300007
         103	1	35	1	0.0	-1.15600002	8.56299973	5.02899981
         104	1	35	3	0.0	-0.454	10.85099983	5.22300005
         105	1	35	4	0.0	-2.01900005	8.28899956	6.26399994
         106	1	36	1	0.0	2.11500001	10.22000027	6.046
         107	1	36	3	0.0	3.12700009	11.93799973	4.70900011
         108	1	36	4	0.0	3.15100002	9.57400036	6.95300007
         109	1	37	1	0.0	3.56900001	10.28299999	2.5309999
         110	1	37	3	0.0	2.95099998	12.48999977	1.80999994
         111	1	37	4	0.0	3.8269999	9.05099964	1.65999997
         112	1	38	1	0.0	0.75700003	11.63500023	0.34900001
         113	1	38	3	0.0	-0.81999999	9.91399956	-0.21799999
         114	1	38	4	0.0	1.29700005	11.85599995	-1.06500006
         115	1	39	1	0.0	-3.00500011	11.2869997	0.80500001
         116	1	39	3	0.0	-3.87400007	13.27600002	1.82700002
         117	1	39	4	0.0	-3.26799989	10.30300045	1.96200001
         118	1	40	1	0.0	-5.89900017	13.59200001	-0.03
         119	1	40	3	0.0	-8.24800014	13.49199963	-0.53100002
         120	1	40	4	0.0	-5.26800013	14.89000034	-0.537
         121	1	41	1	0.0	-7.90399981	12.24100018	-2.95099998
         122	1	41	3	0.0	-9.20899963	11.18999958	-1.24199998
         123	1	41	5	0.0	-7.87819072	11.79233207	-3.96243519
         124	1	42	1	0.0	-9.84300041	8.98099995	-2.79699993
         125	1	42	3	0.0	-7.95200014	7.53399992	-3.08999991
         126	1	42	4	0.0	-10.86200047	8.60499954	-3.89100003
         127	1	43	1	0.0	-8.71100044	5.79300022	-1.06900001
         128	1	43	3	0.0	-10.50199986	4.32000017	-1.69299996
         129	1	43	4	0.0	-8.76599979	5.64300013	0.45100001
         130	1	44	1	0.0	-8.85000038	2.52600002	-3.01200008
         131	1	44	3	0.0	-6.99100018	1.42400002	-1.96800005
         132	1	44	4	0.0	-8.59200001	2.62700009	-4.5170002
         133	1	45	1	0.0	-8.18799973	-1.07000005	-1.96700001
         134	1	45	3	0.0	-9.79300022	-2.48799992	-3.0539999
         135	1	45	4	0.0	-8.60099983	-1.28499997	-0.50999999
         136	1	46	1	0.0	-7.88700008	-4.2329998	-4.0539999
         137	1	46	3	0.0	-6.96500015	-5.82000017	-2.50600004
         138	1	46	4	0.0	-6.81400013	-4.38700008	-5.13399982
         139	1	47	1	0.0	-9.24800014	-7.38000011	-2.41300011
         140	1	47	3	0.0	-9.47399998	-9.70699978	-2.954
         141	1	47	4	0.0	-10.67300034	-7.44199991	-1.852
         142	1	48	1	0.0	-7.80499983	-9.58899975	-5.15500021
         143	1	48	3	0.0	-6.23500013	-11.38300037	-4.86499977
         144	1	48	4	0.0	-7.78000021	-9.13399982	-6.61499977
         145	1	49	1	0.0	-4.21700001	-9.73999977	-3.90300012
         146	1	49	3	0.0	-2.50399995	-8.80000019	-2.50699997
         147	1	49	4	0.0	-3.20099998	-9.64500046	-5.05900002
         148	1	50	1	0.0	-4.28499985	-7.50199986	-0.81999999
         149	1	50	3	0.0	-2.1170001	-6.50899982	-1.11199999
         150	1	50	4	0.0	-3.63899994	-8.36299992	0.26499999
         151	1	51	1	0.0	-3.09800005	-4.12200022	-2.09800005
         152	1	51	3	0.0	-4.86999989	-2.523	-2.36500001
         153	1	51	4	0.0	-2.77099991	-4.22300005	-3.58800006
         154	1	52	1	0.0	-3.7650001	-0.69199997	-0.59299999
         155	1	52	3	0.0	-2.09699988	0.39399999	-1.92799997
         156	1	52	4	0.0	-3.37199998	-0.317	0.83899999
         157	1	53	1	0.0	-3.79900002	2.29500008	-2.95099998
         158	1	53	3	0.0	-5.73699999	3.59599996	-2.3829999
         159	1	53	4	0.0	-4.08900023	1.83899999	-4.38100004
         160	1	54	1	0.0	-4.38899994	6.01900005	-2.48099995
         161	1	54	3	0.0	-3.18300009	7.48999977	-3.94899988
         162	1	54	4	0.0	-3.72600007	6.704	-1.27100003
         163	1	55	1	0.0	-5.33599997	7.8670001	-5.66900015
         164	1	55	3	0.0	-6.56599998	9.46800041	-4.37799978
         165	1	55	4	0.0	-6.20300007	7.21799994	-6.75
         166	1	56	1	0.0	-5.92000008	11.60200024	-6.02400017
         167	1	56	3	0.0	-7.90199995	10.92500019	-7.16400003
         168	1	56	4	0.0	-5.05299997	12.54199982	-6.86600018

Bond Coeffs

           1	60	3.816
           2	60	2.40
           3	60	2.76
           4	60	1.53
           5	60	1.09
Bonds

           1	2	1	2
           2	4	1	3
           3	1	1	4
           4	3	2	4
           5	2	4	5
           6	4	4	6
           7	1	4	7
           8	3	5	7
           9	2	7	8
          10	4	7	9
          11	1	7	10
          12	3	8	10
          13	2	10	11
          14	4	10	12
          15	1	10	13
          16	3	11	13
          17	2	13	14
          18	4	13	15
          19	1	13	16
          20	3	14	16
          21	2	16	17
          22	4	16	18
          23	1	16	19
          24	3	17	19
          25	2	19	20
          26	4	19	21
          27	1	19	22
          28	3	20	22
          29	2	22	23
          30	4	22	24
          31	1	22	25
          32	3	23	25
          33	2	25	26
          34	4	25	27
          35	1	25	28
          36	3	26	28
          37	2	28	29
          38	4	28	30
          39	1	28	31
          40	3	29	31
          41	2	31	32
          42	4	31	33
          43	1	31	34
          44	3	32	34
          45	2	34	35
          46	4	34	36
          47	1	34	37
          48	3	35	37
          49	2	37	38
          50	4	37	39
          51	1	37	40
          52	3	38	40
          53	2	40	41
          54	4	40	42
          55	1	40	43
          56	3	41	43
          57	2	43	44
          58	4	43	45
          59	1	43	46
          60	3	44	46
          61	2	46	47
          62	4	46	48
          63	1	46	49
          64	3	47	49
          65	2	49	50
          66	4	49	51
          67	1	49	52
          68	3	50	52
          69	2	52	53
          70	4	52	54
          71	1	52	55
          72	3	53	55
          73	2	55	56
          74	4	55	57
          75	1	55	58
          76	3	56	58
          77	2	58	59
          78	4	58	60
          79	1	58	61
          80	3	59	61
          81	2	61	62
          82	4	61	63
          83	1	61	64
          84	3	62	64
          85	2	64	65
          86	4	64	66
          87	1	64	67
          88	3	65	67
          89	2	67	68
          90	4	67	69
          91	1	67	70
          92	3	68	70
          93	2	70	71
          94	5	70	72
          95	1	70	73
          96	3	71	73
          97	2	73	74
          98	4	73	75
          99	1	73	76
         100	3	74	76
         101	2	76	77
         102	4	76	78
         103	1	76	79
         104	3	77	79
         105	2	79	80
         106	4	79	81
         107	1	79	82
         108	3	80	82
         109	2	82	83
         110	4	82	84
         111	1	82	85
         112	3	83	85
         113	2	85	86
         114	4	85	87
         115	1	85	88
         116	3	86	88
         117	2	88	89
         118	4	88	90
         119	1	88	91
         120	3	89	91
         121	2	91	92
         122	4	91	93
         123	1	91	94
         124	3	92	94
         125	2	94	95
         126	4	94	96
         127	1	94	97
         128	3	95	97
         129	2	97	98
         130	4	97	99
         131	1	97	100
         132	3	98	100
         133	2	100	101
         134	4	100	102
         135	1	100	103
         136	3	101	103
         137	2	103	104
         138	4	103	105
         139	1	103	106
         140	3	104	106
         141	2	106	107
         142	4	106	108
         143	1	106	109
         144	3	107	109
         145	2	109	110
         146	4	109	111
         147	1	109	112
         148	3	110	112
         149	2	112	113
         150	4	112	114
         151	1	112	115
         152	3	113	115
         153	2	115	116
         154	4	115	117
         155	1	115	118
         156	3	116	118
         157	2	118	119
         158	4	118	120
         159	1	118	121
         160	3	119	121
         161	2	121	122
         162	5	121	123
         163	1	121	124
         164	3	122	124
         165	2	124	125
         166	4	124	126
         167	1	124	127
         168	3	125	127
         169	2	127	128
         170	4	127	129
         171	1	127	130
         172	3	128	130
         173	2	130	131
         174	4	130	132
         175	1	130	133
         176	3	131	133
         177	2	133	134
         178	4	133	135
         179	1	133	136
         180	3	134	136
         181	2	136	137
         182	4	136	138
         183	1	136	139
         184	3	137	139
         185	2	139	140
         186	4	139	141
         187	1	139	142
         188	3	140	142
         189	2	142	143
         190	4	142	144
         191	1	142	145
         192	3	143	145
         193	2	145	146
         194	4	145	147
         195	1	145	148
         196	3	146	148
         197	2	148	149
         198	4	148	150
         199	1	148	151
         200	3	149	151
         201	2	151	152
         202	4	151	153
         203	1	151	154
         204	3	152	154
         205	2	154	155
         206	4	154	156
         207	1	154	157
         208	3	155	157
         209	2	157	158
         210	4	157	159
         211	1	157	160
         212	3	158	160
         213	2	160	161
         214	4	160	162
         215	1	160	163
         216	3	161	163
         217	2	163	164
         218	4	163	165
         219	1	163	166
         220	3	164	166
         221	2	166	167
         222	4	166	168

