LAMMPS protain data file

         543  atoms
         722  bonds
           0  angles
           0  dihedrals
           0  impropers

           5  atom types
           5  bond types
           0  angle types
           0  dihedral types
           0  improper types

-1000.0	1000.0	xlo xhi
-1000.0	1000.0	ylo yhi
-1000.0	1000.0	zlo zhi

Masses

           1	27.0
           2	14.0
           3	28.0
           4	60.0
           5	2.0

Atoms

           1	1	1	1	0.0	12.48999977	-0.32300001	-20.02400017
           2	1	1	3	0.0	13.01200008	-1.49899995	-17.99600029
           3	1	1	4	0.0	11.06499958	-0.80199999	-20.29999924
           4	1	2	1	0.0	13.09500027	0.80000001	-16.43799973
           5	1	2	3	0.0	11.22200012	2.2809999	-16.32299995
           6	1	2	4	0.0	14.42300034	1.50899994	-16.1970005
           7	1	3	1	0.0	10.97900009	2.06399989	-13.53800011
           8	1	3	3	0.0	12.13399982	4.15500021	-13.78299999
           9	1	3	4	0.0	11.23499966	1.704	-12.07800007
          10	1	4	1	0.0	9.84300041	5.67600012	-13.94999981
          11	1	4	3	0.0	10.54899979	5.81799984	-11.67300034
          12	1	4	5	0.0	8.91736186	6.21735361	-13.98953495
          13	1	5	1	0.0	10.77200031	8.57999992	-11.66399956
          14	1	5	3	0.0	10.68700027	8.31900024	-9.28899956
          15	1	5	4	0.0	10.65600014	10.02000046	-12.19299984
          16	1	6	1	0.0	7.95499992	8.21800041	-9.11499977
          17	1	6	3	0.0	8.42099953	6.67299986	-7.31500006
          18	1	6	4	0.0	6.45300007	8.47000027	-9.31299973
          19	1	7	1	0.0	8.28299999	4.42799997	-8.90600014
          20	1	7	3	0.0	9.8039999	3.73200011	-7.17600012
          21	1	7	4	0.0	8.15600014	3.42600012	-10.06200027
          22	1	8	1	0.0	12.06499958	4.75500011	-8.46399975
          23	1	8	3	0.0	12.88599968	5.0170002	-6.21799994
          24	1	8	4	0.0	12.98999977	5.22900009	-9.58600044
          25	1	9	1	0.0	12.14900017	7.62799978	-5.97300005
          26	1	9	3	0.0	12.03499985	7.1079998	-3.63700008
          27	1	9	4	0.0	11.75699997	9.10700035	-6.21700001
          28	1	10	1	0.0	9.58300018	5.90999985	-3.74099994
          29	1	10	3	0.0	10.54899979	4.56799984	-1.99300003
          30	1	10	4	0.0	8.17500019	5.43100023	-4.10400009
          31	1	11	1	0.0	11.69999981	2.73399997	-3.67000008
          32	1	11	3	0.0	13.27600002	2.69400001	-1.88100004
          33	1	11	4	0.0	12.03899956	1.82799995	-4.85699987
          34	1	12	1	0.0	14.87699986	4.71199989	-2.90899992
          35	1	12	3	0.0	15.30599976	4.96199989	-0.54900002
          36	1	12	4	0.0	15.45400047	5.8829999	-3.73200011
          37	1	13	1	0.0	13.14000034	6.61800003	-0.142
          38	1	13	3	0.0	13.27799988	5.70900011	2.05900002
          39	1	13	4	0.0	11.94299984	7.57800007	-0.31400001
          40	1	14	1	0.0	11.79599953	3.47799993	1.53699994
          41	1	14	3	0.0	13.18500042	2.40100002	3.15100002
          42	1	14	4	0.0	10.78299999	2.46700001	0.99299997
          43	1	15	1	0.0	15.22599983	1.84800005	1.45700002
          44	1	15	3	0.0	16.50699997	2.25900006	3.44400001
          45	1	15	4	0.0	16.05699921	1.43700004	0.221
          46	1	16	1	0.0	16.89999962	4.94700003	2.90899992
          47	1	16	3	0.0	17.02199936	4.99599981	5.31099987
          48	1	16	4	0.0	16.96899986	6.34200001	2.25099993
          49	1	17	1	0.0	14.30900002	5.171	5.6960001
          50	1	17	3	0.0	14.72000027	3.83999991	7.65299988
          51	1	17	4	0.0	12.81599998	5.54300022	5.56099987
          52	1	18	1	0.0	14.61800003	1.41499996	6.38700008
          53	1	18	3	0.0	16.22599983	0.79900002	8.05500031
          54	1	18	4	0.0	14.4090004	0.271	5.375
          55	1	19	1	0.0	18.38599968	1.84200001	6.73799992
          56	1	19	3	0.0	19.04400063	2.30299997	9.0010004
          57	1	19	4	0.0	19.36499977	2.34200001	5.68499994
          58	1	20	1	0.0	17.86800003	4.78499985	9.0909996
          59	1	20	3	0.0	17.71500015	4.2670002	11.43700027
          60	1	20	4	0.0	17.10099983	6.08400011	8.76399994
          61	1	21	1	0.0	15.57499981	2.5769999	11.16300011
          62	1	21	3	0.0	16.39800072	1.21300006	12.95199966
          63	1	21	4	0.0	14.22599983	1.98000002	10.71800041
          64	1	22	1	0.0	18.19499969	-0.177	11.49300003
          65	1	22	3	0.0	19.72599983	-0.066	13.34399986
          66	1	22	4	0.0	18.79299927	-1.05700004	10.39000034
          67	1	23	1	0.0	20.90699959	2.31399989	12.48600006
          68	1	23	3	0.0	21.08499908	2.77600002	14.84399986
          69	1	23	4	0.0	21.4829998	3.40799999	11.57499981
          70	1	24	1	0.0	18.89500046	4.51800013	14.84799957
          71	1	24	3	0.0	17.62599945	4.14699984	16.84300041
          72	1	24	4	0.0	18.2859993	5.83900023	14.35299969
          73	1	25	1	0.0	16.14999962	2.07200003	15.79399967
          74	1	25	3	0.0	14.76599979	3.71199989	14.74300003
          75	1	25	5	0.0	14.89821304	0.99195283	15.76741174
          76	1	26	1	0.0	12.50800037	2.07800007	14.66699982
          77	1	26	3	0.0	11.35200024	4.19199991	14.7510004
          78	1	26	4	0.0	11.53299999	0.91100001	14.77799988
          79	1	27	1	0.0	11.29800034	4.29300022	17.52700043
          80	1	27	3	0.0	11.03899956	6.65600014	17.10199928
          81	1	27	4	0.0	11.47099972	3.99300003	19.02400017
          82	1	28	1	0.0	13.76500034	7.08900023	16.80900002
          83	1	28	3	0.0	13.00699997	8.88199997	15.37699986
          84	1	28	4	0.0	15.28499985	6.921	16.71299934
          85	1	29	1	0.0	12.59500027	7.26200008	13.19699955
          86	1	29	3	0.0	10.65999985	8.56700039	12.63099957
          87	1	29	4	0.0	12.91300011	6.22599983	12.09000015
          88	1	30	1	0.0	8.8920002	7.02099991	14.11299992
          89	1	30	3	0.0	7.71799994	9.09799957	14.44400024
          90	1	30	4	0.0	8.20400047	5.91099977	14.90200043
          91	1	31	1	0.0	9.34799957	9.98499966	16.41500092
          92	1	31	3	0.0	8.50300026	12.07999992	15.56400013
          93	1	31	4	0.0	10.52799988	10.18099976	17.38199997
          94	1	32	1	0.0	10.08899975	12.0170002	13.25500011
          95	1	32	3	0.0	8.60700035	12.85299969	11.55700016
          96	1	32	4	0.0	11.48700047	12.07600021	12.64700031
          97	1	33	1	0.0	7.97700024	10.33899975	10.54199982
          98	1	33	3	0.0	5.74499989	9.77499962	9.82999992
          99	1	33	4	0.0	8.72099972	9.35499954	9.6079998
         100	1	34	1	0.0	4.91200018	8.86400032	12.2840004
         101	1	34	3	0.0	3.99399996	11.0909996	12.39000034
         102	1	34	4	0.0	4.88399982	8.21000004	13.64700031
         103	1	35	1	0.0	1.33099997	10.13700008	11.9659996
         104	1	35	3	0.0	1.79900002	10.38700008	14.30300045
         105	1	35	4	0.0	0.17200001	9.13599968	11.94499969
         106	1	36	1	0.0	0.88499999	12.89799976	14.54800034
         107	1	36	3	0.0	-0.76899999	11.65200043	15.77099991
         108	1	36	4	0.0	0.013	14.12800026	14.26000023
         109	1	37	1	0.0	0.88300002	11.18200016	17.93899918
         110	1	37	3	0.0	0.59899998	11.49800014	20.30400085
         111	1	37	4	0.0	1.94400001	10.08399963	18.13500023
         112	1	38	1	0.0	0.52200001	14.27000046	20.11499977
         113	1	38	3	0.0	0.36000001	15.92800045	18.39599991
         114	1	38	4	0.0	1.82099998	14.55200005	20.85300064
         115	1	39	1	0.0	-1.52400005	17.45400047	19.64900017
         116	1	39	3	0.0	-0.74800003	19.28000069	18.3010006
         117	1	39	4	0.0	-2.36599994	17.99699974	20.80699921
         118	1	40	1	0.0	1.73599994	19.41900063	19.49200058
         119	1	40	3	0.0	3.07299995	20.00499916	17.59700012
         120	1	40	4	0.0	2.88100004	19.4090004	20.52700043
         121	1	41	1	0.0	2.5309999	17.68400002	16.20100021
         122	1	41	3	0.0	1.86600006	17.42399979	13.91300011
         123	1	41	4	0.0	3.09800005	16.25799942	16.2670002
         124	1	42	1	0.0	-0.78100002	18.15999985	14.36200047
         125	1	42	3	0.0	-1.13699996	18.74699974	12.06400013
         126	1	42	4	0.0	-2.13400006	18.47400093	15.01799965
         127	1	43	1	0.0	0.60500002	20.88100052	12.06499958
         128	1	43	3	0.0	2.50999999	21.38199997	10.68700027
         129	1	43	4	0.0	0.52700001	22.36400032	12.46199989
         130	1	44	1	0.0	3.70700002	18.92700005	11.04599953
         131	1	44	3	0.0	3.03500009	16.84600067	10.05099964
         132	1	44	4	0.0	4.62400007	18.14999962	12.00399971
         133	1	45	1	0.0	2.03800011	18.13299942	7.75699997
         134	1	45	3	0.0	1.93499994	16.1590004	6.41400003
         135	1	45	4	0.0	1.551	19.20899963	6.77799988
         136	1	46	1	0.0	4.63500023	15.73900032	6.33799982
         137	1	46	3	0.0	4.03100014	13.41899967	6.25500011
         138	1	46	4	0.0	6.17399979	15.82999992	6.41900015
         139	1	47	1	0.0	3.4230001	13.24300003	8.97399998
         140	1	47	3	0.0	1.96200001	11.36200047	8.78299999
         141	1	47	4	0.0	3.25500011	13.53600025	10.46700001
         142	1	48	1	0.0	0.095	12.62100029	7.27099991
         143	1	48	3	0.0	-0.42899999	10.93700027	5.65500021
         144	1	48	4	0.0	-0.94800001	13.68900013	6.89499998
         145	1	49	1	0.0	2.15700006	11.03600025	4.47399998
         146	1	49	3	0.0	3.46600008	9.03600025	4.24300003
         147	1	49	4	0.0	2.56999993	11.97000027	3.33899999
         148	1	50	1	0.0	5.59200001	9.97599983	5.73699999
         149	1	50	3	0.0	6.52099991	7.89300013	6.40700006
         150	1	50	4	0.0	6.67000008	10.86600018	6.42199993
         151	1	51	1	0.0	4.25299978	7.02600002	7.74100018
         152	1	51	3	0.0	4.88800001	4.82399988	6.99900007
         153	1	51	4	0.0	2.87599993	6.92000008	8.40100002
         154	1	52	1	0.0	4.0999999	5.22800016	4.38100004
         155	1	52	3	0.0	5.70900011	3.75200009	3.38800001
         156	1	52	4	0.0	3.40700006	5.7750001	3.11800003
         157	1	53	1	0.0	7.91699982	5.30700016	4.14599991
         158	1	53	3	0.0	9.73099995	3.91599989	4.84200001
         159	1	53	4	0.0	8.69999981	6.61800003	4.125
         160	1	54	1	0.0	8.56900024	3.18499994	7.25400019
         161	1	54	3	0.0	6.97399998	1.403	7.06500006
         162	1	54	4	0.0	8.20600033	3.70600009	8.65200043
         163	1	55	1	0.0	8.85700035	-0.61500001	7.26999998
         164	1	55	3	0.0	10.62899971	-0.815	8.87100029
         165	1	55	4	0.0	9.24600029	-1.28400004	5.94299984
         166	1	56	1	0.0	9.3409996	-2.91700006	10.24199963
         167	1	56	3	0.0	10.37899971	-4.82000017	11.26000023
         168	1	56	4	0.0	8.11600018	-2.89100003	11.14700031
         169	1	57	1	0.0	10.84700012	-6.12200022	8.84599972
         170	1	57	3	0.0	10.77299976	-5.57200003	6.51499987
         171	1	57	4	0.0	9.95100021	-7.29799986	9.22799969
         172	1	58	1	0.0	12.65999985	-7.47100019	5.79099989
         173	1	58	3	0.0	11.40499973	-7.43900013	3.75500011
         174	1	58	4	0.0	13.69799995	-8.60000038	5.80600023
         175	1	59	1	0.0	9.55799961	-9.29599953	4.57800007
         176	1	59	3	0.0	8.05200005	-8.11999989	3.11999989
         177	1	59	4	0.0	8.80900002	-10.40200043	5.31899977
         178	1	60	1	0.0	7.43300009	-6.14900017	5.03499985
         179	1	60	3	0.0	7.13100004	-5.03599977	2.91400003
         180	1	60	4	0.0	7.43200016	-5.32499981	6.33599997
         181	1	61	1	0.0	9.65400028	-3.9920001	2.82299995
         182	1	61	3	0.0	9.52799988	-4.22200012	0.43099999
         183	1	61	4	0.0	10.92700005	-3.20499992	3.23300004
         184	1	62	1	0.0	10.49800014	-6.76599979	0.336
         185	1	62	3	0.0	9.19900036	-6.53999996	-1.67200005
         186	1	62	4	0.0	11.0369997	-8.16499996	0.671
         187	1	63	1	0.0	6.94999981	-7.64900017	-0.63200003
         188	1	63	3	0.0	5.65600014	-6.24499989	-2.08100009
         189	1	63	4	0.0	6.05200005	-8.67399979	0.065
         190	1	64	1	0.0	5.64699984	-4.0710001	-0.484
         191	1	64	3	0.0	5.63600016	-2.9849999	-2.61899996
         192	1	64	4	0.0	5.71799994	-3.06800008	0.67900002
         193	1	65	1	0.0	8.37300014	-2.85599995	-2.84500003
         194	1	65	3	0.0	8.40400028	-3.15100002	-5.22800016
         195	1	65	4	0.0	9.81999969	-2.52800012	-2.46600008
         196	1	66	1	0.0	7.9749999	-5.84200001	-5.20699978
         197	1	66	3	0.0	6.58099985	-5.29699993	-7.08099985
         198	1	66	4	0.0	7.97300005	-7.33199978	-4.85599995
         199	1	67	1	0.0	4.28800011	-5.03100014	-5.6329999
         200	1	67	3	0.0	3.68700004	-3.32299995	-7.204
         201	1	67	4	0.0	3.18300009	-5.19899988	-4.59200001
         202	1	68	1	0.0	5.01000023	-1.29200006	-5.83500004
         203	1	68	3	0.0	5.30600023	-0.50599998	-8.10900021
         204	1	68	4	0.0	5.68599987	-0.43599999	-4.74100018
         205	1	69	1	0.0	7.69500017	-1.86300004	-8.48600006
         206	1	69	3	0.0	6.86600018	-1.72000003	-10.7489996
         207	1	69	4	0.0	8.86999989	-2.81800008	-8.27799988
         208	1	70	1	0.0	5.41400003	-4.06400013	-10.5710001
         209	1	70	3	0.0	3.99699998	-2.86100006	-12.09700012
         210	1	70	4	0.0	4.99700022	-5.4829998	-10.20199966
         211	1	71	1	0.0	2.03500009	-2.30500007	-10.20300007
         212	1	71	3	0.0	1.648	-0.219	-11.33100033
         213	1	71	4	0.0	1.04499996	-2.57299995	-9.06900024
         214	1	72	1	0.0	3.24799991	1.24300003	-9.65799999
         215	1	72	3	0.0	3.74499989	2.46099997	-11.66100025
         216	1	72	5	0.0	2.85348099	2.33407843	-8.40284996
         217	1	73	1	0.0	5.77099991	0.78299999	-12.45800018
         218	1	73	3	0.0	5.07700014	1.55900002	-14.62899971
         219	1	73	5	0.0	6.6730688	0.86805392	-12.05916766
         220	1	74	1	0.0	3.00200009	-0.32100001	-14.84300041
         221	1	74	3	0.0	1.95500004	1.44700003	-16.09300041
         222	1	74	4	0.0	2.14400005	-1.579	-14.63799953
         223	1	75	1	0.0	0.67799997	2.546	-13.90600014
         224	1	75	3	0.0	1.02400005	4.50400019	-15.26000023
         225	1	75	4	0.0	0.104	2.84100008	-12.5
         226	1	76	1	0.0	3.4849999	5.09000015	-14.28100014
         227	1	76	3	0.0	3.76300001	6.06699991	-16.46699905
         228	1	76	4	0.0	4.73999977	5.26100016	-13.41800022
         229	1	77	1	0.0	4.63899994	3.71399999	-17.63299942
         230	1	77	3	0.0	3.59200001	4.68300009	-19.56800079
         231	1	77	4	0.0	5.21500015	2.31100011	-17.85899925
         232	1	78	1	0.0	1.22599995	3.34100008	-19.25099945
         233	1	78	3	0.0	-0.24699999	5.04400015	-20.07699966
         234	1	78	4	0.0	0.40200001	2.06200004	-19.14800072
         235	1	79	1	0.0	-0.80000001	6.06500006	-17.52300072
         236	1	79	3	0.0	-0.93900001	8.38899994	-16.9489994
         237	1	79	4	0.0	-1.79299998	5.52699995	-16.49300003
         238	1	80	1	0.0	1.76499999	8.6079998	-16.33099937
         239	1	80	3	0.0	1.42400002	8.20699978	-13.98999977
         240	1	80	5	0.0	2.09892687	9.12449778	-15.86288417
         241	1	81	1	0.0	3.61500001	9.81900024	-13.23700047
         242	1	81	3	0.0	2.32200003	10.11999989	-11.23200035
         243	1	81	4	0.0	4.83900023	10.74300003	-13.27700043
         244	1	82	1	0.0	0.67500001	12.04100037	-12.2869997
         245	1	82	3	0.0	-0.81599998	11.27400017	-10.57299995
         246	1	82	5	0.0	0.23815853	12.47411835	-11.18888301
         247	1	83	1	0.0	-1.68700004	9.08500004	-12.01799965
         248	1	83	3	0.0	-1.86800003	8.18599987	-9.79300022
         249	1	83	4	0.0	-1.96099997	8.05799961	-13.12300014
         250	1	84	1	0.0	0.67199999	7.22300005	-9.70899963
         251	1	84	3	0.0	0.49599999	7.67299986	-7.34299994
         252	1	84	4	0.0	2.03699994	6.63999987	-10.09899998
         253	1	85	1	0.0	1.23500001	10.31799984	-7.55000019
         254	1	85	3	0.0	-0.13600001	10.3210001	-5.59100008
         255	1	85	4	0.0	1.63600004	11.72799969	-8.03999996
         256	1	86	1	0.0	-2.48399997	10.74499989	-6.93400002
         257	1	86	3	0.0	-3.48699999	9.56499958	-5.10699987
         258	1	86	4	0.0	-3.51200008	11.3039999	-7.9380002
         259	1	87	1	0.0	-3.2750001	7.09000015	-6.22399998
         260	1	87	3	0.0	-3.07399988	6.58900023	-3.8670001
         261	1	87	4	0.0	-3.00200009	5.8579998	-7.10500002
         262	1	88	1	0.0	-0.359	7.125	-3.76699996
         263	1	88	3	0.0	-0.89499998	7.69899988	-1.48800004
         264	1	88	4	0.0	1.11399996	7.30800009	-4.15100002
         265	1	89	1	0.0	-1.27199996	10.33199978	-1.92900002
         266	1	89	3	0.0	-2.76200008	10.0909996	-0.065
         267	1	89	4	0.0	-1.25999999	11.77099991	-2.4690001
         268	1	90	1	0.0	-4.97599983	9.52499962	-1.57200003
         269	1	90	3	0.0	-5.579	8.22000027	0.345
         270	1	90	4	0.0	-6.05499983	9.48999977	-2.66899991
         271	1	91	1	0.0	-4.47399998	5.90799999	-0.50800002
         272	1	91	3	0.0	-4.05700016	5.38199997	1.79700005
         273	1	91	4	0.0	-4.09299994	4.69899988	-1.38499999
         274	1	92	1	0.0	-1.71399999	6.78999996	1.97899997
         275	1	92	3	0.0	-2.51099992	7.23099995	4.19399977
         276	1	92	4	0.0	-0.35699999	7.42500019	1.68900001
         277	1	93	1	0.0	-3.86899996	9.47299957	3.58299994
         278	1	93	3	0.0	-5.26499987	8.71800041	5.37599993
         279	1	93	4	0.0	-4.3920002	10.77000046	2.93000007
         280	1	94	1	0.0	-7.07600021	7.43200016	3.84100008
         281	1	94	3	0.0	-7.34899998	5.94000006	5.69199991
         282	1	94	4	0.0	-8.06299973	7.07999992	2.70900011
         283	1	95	1	0.0	-5.50099993	4.15799999	4.90199995
         284	1	95	3	0.0	-5.125	3.93499994	7.25899982
         285	1	95	4	0.0	-4.64400005	3.17600012	4.09100008
         286	1	96	1	0.0	-3.34800005	6.01999998	7.41699982
         287	1	96	3	0.0	-4.3130002	6.32499981	9.58600044
         288	1	96	5	0.0	-1.90397434	5.75124175	7.50628988
         289	1	97	1	0.0	-6.40899992	7.84499979	8.72700024
         290	1	97	3	0.0	-7.45800018	6.79799986	10.64099979
         291	1	97	4	0.0	-7.40600014	8.72500038	7.93300009
         292	1	98	1	0.0	-8.38700008	4.65600014	9.24600029
         293	1	98	3	0.0	-8.04899979	3.46300006	11.29199982
         294	1	98	4	0.0	-8.95199966	3.7420001	8.14099979
         295	1	99	1	0.0	-5.39400005	2.89400005	10.78800011
         296	1	99	3	0.0	-5.41599989	2.96600008	13.18099976
         297	1	99	4	0.0	-3.99900007	2.7750001	10.17199993
         298	1	100	1	0.0	-4.85099983	5.59600019	13.41300011
         299	1	100	3	0.0	-6.15799999	5.5619998	15.42000008
         300	1	100	4	0.0	-4.24399996	6.99900007	13.26000023
         301	1	101	1	0.0	-8.58500004	5.84200001	14.15499973
         302	1	101	3	0.0	-9.31999969	4.69299984	16.13699913
         303	1	101	4	0.0	-9.71100044	6.05299997	13.13199997
         304	1	102	1	0.0	-8.86299992	2.18700004	15.16699982
         305	1	102	3	0.0	-7.96700001	0.96100003	17.0170002
         306	1	102	4	0.0	-9.33100033	1.10800004	14.18700027
         307	1	103	1	0.0	-5.32800007	1.32599998	16.30500031
         308	1	103	3	0.0	-3.18000007	1.78799999	17.27599907
         309	1	103	4	0.0	-4.72900009	0.28299999	15.35900021
         310	1	104	1	0.0	-3.39599991	4.52199984	17.12199974
         311	1	104	3	0.0	-2.34800005	4.22399998	14.99499989
         312	1	104	5	0.0	-2.88188025	4.93303065	17.1290641
         313	1	105	1	0.0	-0.58999997	6.40899992	15.32999992
         314	1	105	3	0.0	1.49100006	6.1170001	14.18700027
         315	1	105	4	0.0	-0.292	7.796	15.9119997
         316	1	106	1	0.0	2.26200008	3.91599989	15.56000042
         317	1	106	3	0.0	1.73000002	1.68400002	14.85099983
         318	1	106	4	0.0	2.75200009	3.38000011	16.91399956
         319	1	107	1	0.0	2.27900004	2.204	12.17300034
         320	1	107	3	0.0	3.53999996	3.91400003	11.0539999
         321	1	107	4	0.0	0.80800003	2.06299996	11.77499962
         322	1	108	1	0.0	3.88199997	2.49300003	8.78899956
         323	1	108	3	0.0	3.398	0.421	7.71299982
         324	1	108	5	0.0	4.32486949	3.39290426	7.87654873
         325	1	109	1	0.0	4.59399986	1.21800005	5.31500006
         326	1	109	3	0.0	2.62800002	2.11899996	4.25400019
         327	1	109	5	0.0	5.135805	0.20811157	4.60990047
         328	1	110	1	0.0	3.27399993	1.02699995	1.77699995
         329	1	110	3	0.0	1.58299994	0.048	0.428
         330	1	110	4	0.0	4.23999977	0.917	0.59299999
         331	1	111	1	0.0	0.745	-1.80499995	2.22099996
         332	1	111	3	0.0	-1.33000004	-1.85500002	1.02400005
         333	1	111	4	0.0	0.63099998	-2.81299996	3.37700009
         334	1	112	1	0.0	-2.296	0.50700003	2.00600004
         335	1	112	3	0.0	-3.2650001	0.87400001	-0.17
         336	1	112	5	0.0	-3.36190853	0.75581445	2.40600872
         337	1	113	1	0.0	-0.93000001	1.99199998	-1.204
         338	1	113	3	0.0	-1.46000004	0.83600003	-3.25500011
         339	1	113	4	0.0	0.38600001	2.79399991	-1.31799996
         340	1	114	1	0.0	-0.329	-1.523	-2.53500009
         341	1	114	3	0.0	-2.11400008	-2.4460001	-3.8440001
         342	1	114	4	0.0	0.59899998	-2.60800004	-1.95000005
         343	1	115	1	0.0	-3.95799994	-2.5	-1.85000002
         344	1	115	3	0.0	-5.40700006	-2.08200002	-3.73699999
         345	1	115	4	0.0	-4.73699999	-2.43600011	-0.53399998
         346	1	116	1	0.0	-4.97900009	0.58899999	-3.81599998
         347	1	116	3	0.0	-5.32399988	0.226	-6.17500019
         348	1	116	4	0.0	-4.63999987	2.05299997	-3.48699999
         349	1	117	1	0.0	-2.68000007	-0.31999999	-6.7249999
         350	1	117	3	0.0	-3.49399996	-1.82200003	-8.44400024
         351	1	117	4	0.0	-1.15100002	-0.329	-6.67199993
         352	1	118	1	0.0	-3.96099997	-3.92000008	-6.74800014
         353	1	118	3	0.0	-5.77099991	-4.24100018	-8.30900002
         354	1	118	4	0.0	-3.9460001	-4.90899992	-5.58599997
         355	1	119	1	0.0	-7.57000017	-2.75399995	-6.8670001
         356	1	119	3	0.0	-8.47900009	-2.25999999	-9.02600002
         357	1	119	5	0.0	-8.33522701	-2.81423574	-6.00604059
         358	1	120	1	0.0	-6.79899979	-0.125	-9.49300003
         359	1	120	3	0.0	-7.18599987	-0.92299998	-11.73600006
         360	1	120	4	0.0	-5.82399988	1.05799997	-9.37800026
         361	1	121	1	0.0	-4.83099985	-2.35100007	-11.85000038
         362	1	121	3	0.0	-6.07399988	-3.67799997	-13.41399956
         363	1	121	4	0.0	-3.41100001	-2.898	-11.6239996
         364	1	122	1	0.0	-7.20499992	-5.28200006	-11.51799965
         365	1	122	3	0.0	-8.92300034	-5.24100018	-13.20699978
         366	1	122	4	0.0	-7.52400017	-6.08099985	-10.25599957
         367	1	123	1	0.0	-10.41300011	-3.296	-11.98700047
         368	1	123	3	0.0	-11.18500042	-2.74399996	-14.19699955
         369	1	123	4	0.0	-11.06400013	-2.36400008	-10.9630003
         370	1	124	1	0.0	-9.02700043	-1.17900002	-14.81299973
         371	1	124	3	0.0	-9.56000042	-2.02999997	-16.99799919
         372	1	124	4	0.0	-7.75099993	-0.34200001	-14.78899956
         373	1	125	1	0.0	-8.11100006	-4.36399984	-16.67499924
         374	1	125	3	0.0	-9.60400009	-5.66599989	-18.0170002
         375	1	125	5	0.0	-6.66511465	-4.5900675	-16.40485588
         376	1	126	1	0.0	-11.46000004	-6.02699995	-16.01199913
         377	1	126	3	0.0	-13.45899963	-5.79300022	-17.33699989
         378	1	126	4	0.0	-11.93299961	-6.48699999	-14.63199997
         379	1	127	1	0.0	-13.54300022	-3.03999996	-17.13899994
         380	1	127	3	0.0	-13.93700027	-1.801	-19.15299988
         381	1	127	4	0.0	-13.97700024	-2.00200009	-16.10400009
         382	1	128	1	0.0	-11.24300003	-1.45799994	-19.6989994
         383	1	128	3	0.0	-8.87899971	-1.44400001	-20.12000084
         384	1	128	4	0.0	-10.98600006	-0.055	-19.14800072
         385	1	129	1	0.0	-8.86699963	-3.9690001	-21.36300087
         386	1	129	3	0.0	-6.80200005	-3.21199989	-22.30500031
         387	1	129	4	0.0	-9.49400043	-5.13700008	-22.13299942
         388	1	130	1	0.0	-7.99300003	-1.47899997	-24.125
         389	1	130	3	0.0	-6.46299982	0.36500001	-24.26600075
         390	1	130	4	0.0	-9.00399971	-0.83600003	-25.07900047
         391	1	131	1	0.0	-6.13899994	0.59500003	-21.51499939
         392	1	131	3	0.0	-3.76799989	0.917	-21.30400085
         393	1	131	4	0.0	-6.62599993	0.81300002	-20.07999992
         394	1	132	1	0.0	-3.17799997	-1.78499997	-21.61800003
         395	1	132	3	0.0	-1.76900005	-2.83400011	-19.98399925
         396	1	132	5	0.0	-1.97179889	-1.99937288	-21.06854917
         397	1	133	1	0.0	-3.33999991	-2.01399994	-17.82900047
         398	1	133	3	0.0	-5.44999981	-3.102	-17.5189991
         399	1	133	4	0.0	-3.61800003	-0.75	-16.97599983
         400	1	134	1	0.0	-4.41499996	-5.28399992	-16.19300079
         401	1	134	3	0.0	-2.34200001	-6.03700018	-15.25
         402	1	134	4	0.0	-4.92999983	-6.17600012	-17.33200073
         403	1	135	1	0.0	-3.54099989	-7.80200005	-13.46500015
         404	1	135	3	0.0	-4.67600012	-9.84200001	-14.03299999
         405	1	135	4	0.0	-4.17500019	-7.74100018	-12.07199955
         406	1	136	1	0.0	-2.33599997	-11.09500027	-14.98999977
         407	1	136	3	0.0	-2.86199999	-12.05799961	-12.86600018
         408	1	136	4	0.0	-0.852	-11.41699982	-15.16800022
         409	1	137	1	0.0	-4.26300001	-14.21399975	-13.92500019
         410	1	137	3	0.0	-3.77800012	-14.82600021	-11.65400028
         411	1	137	4	0.0	-4.5999999	-15.38199997	-14.85099983
         412	1	138	1	0.0	-1.245	-15.72599983	-12.2329998
         413	1	138	3	0.0	-0.91500002	-15.14999962	-9.93299961
         414	1	138	5	0.0	-0.45762788	-15.86864421	-11.25286785
         415	1	139	1	0.0	-0.49700001	-12.5170002	-10.38399982
         416	1	139	3	0.0	-1.50999999	-11.81900024	-8.34300041
         417	1	139	4	0.0	0.09	-11.23700047	-10.9829998
         418	1	140	1	0.0	-4.08400011	-12.29199982	-9.14400005
         419	1	140	3	0.0	-4.26599979	-12.97399998	-6.84800005
         420	1	140	4	0.0	-5.39499998	-12.56299973	-9.91399956
         421	1	141	1	0.0	-3.37899995	-15.52999973	-7.31099987
         422	1	141	3	0.0	-2.69400001	-15.26900005	-5.02199984
         423	1	141	4	0.0	-2.90899992	-16.86100006	-7.93900013
         424	1	142	1	0.0	-0.248	-14.22599983	-5.59899998
         425	1	142	3	0.0	-0.19599999	-12.76799965	-3.71499991
         426	1	142	4	0.0	1.13800001	-14.24699974	-6.22800016
         427	1	143	1	0.0	-1.85899997	-10.88799953	-4.8499999
         428	1	143	3	0.0	-2.77200007	-10.84500027	-2.63599992
         429	1	143	4	0.0	-2.58699989	-9.97500038	-5.84000015
         430	1	144	1	0.0	-4.60599995	-12.84500027	-3.05900002
         431	1	144	3	0.0	-4.3499999	-13.39999962	-0.75099999
         432	1	144	4	0.0	-5.59899998	-13.82499981	-3.69300008
         433	1	145	1	0.0	-2.03800011	-14.85599995	-1.11899996
         434	1	145	3	0.0	-1.40199995	-13.95600033	1.01600003
         435	1	145	4	0.0	-0.95999998	-15.78299999	-1.69099998
         436	1	146	1	0.0	-0.33399999	-11.61499977	-0.026
         437	1	146	3	0.0	-1.204	-10.59799957	1.98000002
         438	1	146	4	0.0	0.33199999	-10.60599995	-0.972
         439	1	147	1	0.0	-3.72399998	-10.19699955	0.97399998
         440	1	147	3	0.0	-4.23500013	-10.60999966	3.296
         441	1	147	4	0.0	-4.92399979	-9.97299957	0.047
         442	1	148	1	0.0	-4.625	-13.31900024	2.95900011
         443	1	148	3	0.0	-3.95700002	-13.43200016	5.26200008
         444	1	148	4	0.0	-4.75299978	-14.74499989	2.36800003
         445	1	149	1	0.0	-1.23599994	-13.26399994	4.68300009
         446	1	149	3	0.0	-1.27100003	-12.375	6.92799997
         447	1	149	4	0.0	0.092	-13.09500027	3.97300005
         448	1	150	1	0.0	-1.96899998	-9.83899975	6.12300014
         449	1	150	3	0.0	-3.37199998	-9.65999985	8.05099964
         450	1	150	5	0.0	-1.21160079	-8.07061774	6.1134457
         451	1	151	1	0.0	-5.66200018	-10.39700031	6.65799999
         452	1	151	3	0.0	-6.4369998	-10.87800026	8.88000011
         453	1	151	4	0.0	-6.64300013	-10.88399982	5.59299994
         454	1	152	1	0.0	-5.21099997	-13.3579998	9.00800037
         455	1	152	3	0.0	-3.73699999	-14.31499958	10.63899994
         456	1	152	4	0.0	-5.50299978	-14.77400017	8.49100018
         457	1	153	1	0.0	-2.06599998	-12.11699963	10.7510004
         458	1	153	3	0.0	-0.317	-13.53199959	11.59300041
         459	1	153	4	0.0	-2.56999993	-12.03899956	12.19999981
         460	1	154	1	0.0	0.19	-14.75500011	9.17700005
         461	1	154	3	0.0	2.56999993	-14.67599964	8.90400028
         462	1	154	4	0.0	-0.215	-15.62800026	7.98400021
         463	1	155	1	0.0	2.49000001	-11.96700001	8.06400013
         464	1	155	3	0.0	1.11199999	-10.02900028	8.29800034
         465	1	155	4	0.0	2.43000007	-12.00199986	6.53100014
         466	1	156	1	0.0	2.86500001	-8.70199966	9.98200035
         467	1	156	3	0.0	4.28599977	-7.43900013	8.52999973
         468	1	156	5	0.0	2.2895508	-7.61731858	10.50999642
         469	1	157	1	0.0	2.25099993	-5.62099981	7.81599998
         470	1	157	3	0.0	1.91499996	-3.25300002	7.796
         471	1	157	4	0.0	1.14199996	-5.69399977	6.76999998
         472	1	158	1	0.0	1.82000005	-3.01900005	10.55300045
         473	1	158	3	0.0	-0.19499999	-2.2190001	11.58399963
         474	1	158	4	0.0	2.7190001	-1.89900005	10.03600025
         475	1	159	1	0.0	-1.648	-2.0250001	9.22999954
         476	1	159	3	0.0	-2.52999997	-4.2579999	9.14799976
         477	1	159	4	0.0	-1.86399996	-1.37199998	7.85900021
         478	1	160	1	0.0	-5.0710001	-3.4749999	10.13000011
         479	1	160	3	0.0	-5.8579998	-2.92499995	7.90799999
         480	1	160	4	0.0	-5.86800003	-2.93000007	11.29500008
         481	1	161	1	0.0	-7.74399996	-4.93200016	7.82000017
         482	1	161	3	0.0	-8.73999977	-3.58599997	6.10200024
         483	1	161	4	0.0	-8.61299992	-6.16400003	8.11200047
         484	1	162	1	0.0	-10.01500034	-1.87300003	7.83400011
         485	1	162	3	0.0	-9.74400043	-0.215	6.11999989
         486	1	162	5	0.0	-10.64221259	-1.33879604	7.43979737
         487	1	163	1	0.0	-7.12200022	0.37200001	6.8130002
         488	1	163	3	0.0	-6.75699997	0.68099999	4.45900011
         489	1	163	4	0.0	-5.84899998	0.579	7.60099983
         490	1	164	1	0.0	-6.29799986	-1.96700001	3.94700003
         491	1	164	3	0.0	-7.36600018	-1.60599995	1.83700001
         492	1	164	4	0.0	-5.79300022	-3.40300012	4.079
         493	1	165	1	0.0	-9.91899967	-1.95200002	2.81299996
         494	1	165	3	0.0	-10.50800037	-0.27500001	1.21000004
         495	1	165	4	0.0	-11.15200043	-2.33400011	3.65799999
         496	1	166	1	0.0	-9.76299953	1.84399998	2.76200008
         497	1	166	3	0.0	-9.20300007	2.80200005	0.62099999
         498	1	166	4	0.0	-9.43500042	2.7650001	3.95000005
         499	1	167	1	0.0	-6.71400023	1.69599998	0.498
         500	1	167	3	0.0	-7.25400019	1.62600005	-1.83599997
         501	1	167	5	0.0	-5.07140217	2.10875771	0.18112177
         502	1	168	1	0.0	-8.40200043	-0.85600001	-1.75399995
         503	1	168	3	0.0	-9.60599995	0.091	-3.60700011
         504	1	168	4	0.0	-8.95899963	-2.20700002	-1.31200004