LAMMPS protain data file

         168  atoms
         222  bonds
           0  angles
           0  dihedrals
           0  impropers

           5  atom types
           5  bond types
           0  angle types
           0  dihedral types
           0  improper types

-1000.0	1000.0	xlo xhi
-1000.0	1000.0	ylo yhi
-1000.0	1000.0	zlo zhi

Masses

           1	27.0
           2	14.0
           3	28.0
           4	60.0
           5	2.0

Atoms

           1	1	1	1	0.0	3.81200004	13.28999996	-18.10300064
           2	1	1	3	0.0	3.48000002	15.61900043	-17.62100029
           3	1	1	4	0.0	2.67499995	12.41800022	-17.57099915
           4	1	2	1	0.0	2.12700009	16.13699913	-19.9829998
           5	1	2	3	0.0	4.40799999	16.87800026	-19.8560009
           6	1	2	4	0.0	1.06700003	16.61400032	-18.98900032
           7	1	3	1	0.0	3.82800007	19.4810009	-20.61100006
           8	1	3	3	0.0	5.77299976	19.61199951	-19.20700073
           9	1	3	4	0.0	3.12700009	20.75499916	-21.0890007
          10	1	4	1	0.0	4.36000013	20.39800072	-16.95800018
          11	1	4	3	0.0	3.79099989	18.12100029	-16.45599937
          12	1	4	4	0.0	3.56800008	21.50699997	-16.26099968
          13	1	5	1	0.0	5.11100006	18.10199928	-14.02000046
          14	1	5	3	0.0	4.15199995	19.20400047	-12.1079998
          15	1	5	4	0.0	6.546	17.96800041	-13.47999954
          16	1	6	1	0.0	2.13499999	17.33300018	-11.78499985
          17	1	6	3	0.0	3.17400002	15.50500011	-10.625
          18	1	6	4	0.0	0.82099998	16.71999931	-12.30900002
          19	1	7	1	0.0	2.65199995	16.52899933	-8.10200024
          20	1	7	3	0.0	0.70499998	17.25099945	-6.89599991
          21	1	7	4	0.0	3.66799998	17.40099907	-7.36199999
          22	1	8	1	0.0	0.03	14.70800018	-6.03200006
          23	1	8	3	0.0	0.78200001	12.42500019	-6.06799984
          24	1	8	4	0.0	-1.26699996	14.82199955	-6.83300018
          25	1	9	1	0.0	-0.41100001	11.81999969	-3.62299991
          26	1	9	3	0.0	-0.65100002	9.56400013	-4.40100002
          27	1	9	4	0.0	-1.148	11.92199993	-2.28900003
          28	1	10	1	0.0	-2.7019999	10.18999958	-6.21000004
          29	1	10	3	0.0	-2.08200002	7.91300011	-6.64400005
          30	1	10	4	0.0	-3.32500005	10.95400047	-7.38000011
          31	1	11	1	0.0	0.32699999	8.53800011	-7.84800005
          32	1	11	3	0.0	0.67000002	6.22100019	-7.28999996
          33	1	11	4	0.0	1.66100001	9.22500038	-8.14400005
          34	1	12	1	0.0	0.736	6.68400002	-4.55499983
          35	1	12	3	0.0	-0.59299999	4.77799988	-3.94400001
          36	1	12	4	0.0	1.28100002	7.3210001	-3.28699994
          37	1	13	1	0.0	-3.0	6.11000013	-4.16699982
          38	1	13	3	0.0	-3.80999994	3.92199993	-4.76000023
          39	1	13	4	0.0	-4.09000015	7.18599987	-4.31699991
          40	1	14	1	0.0	-2.82999992	4.05200005	-7.3579998
          41	1	14	3	0.0	-2.05999994	1.77600002	-7.34499979
          42	1	14	4	0.0	-2.61400008	4.64799976	-8.75800037
          43	1	15	1	0.0	0.38999999	2.40400004	-6.18100023
          44	1	15	3	0.0	0.07	0.082	-5.63500023
          45	1	15	4	0.0	1.495	3.12299991	-5.40500021
          46	1	16	1	0.0	-1.52400005	0.62300003	-3.42499995
          47	1	16	3	0.0	-2.82599998	-1.29499996	-4.03000021
          48	1	16	4	0.0	-1.98199999	1.28199995	-2.13400006
          49	1	17	1	0.0	-4.69000006	0.149	-5.48199987
          50	1	17	3	0.0	-4.87599993	-2.00900006	-6.52199984
          51	1	17	4	0.0	-5.46500015	1.25699997	-6.2420001
          52	1	18	1	0.0	-2.65199995	-1.66799998	-8.13399982
          53	1	18	3	0.0	-2.51900005	-4.046	-7.80999994
          54	1	18	4	0.0	-1.49699998	-1.06400001	-8.93299961
          55	1	19	1	0.0	-0.88700002	-3.85800004	-5.56899977
          56	1	19	3	0.0	-1.98099995	-5.80600023	-4.68499994
          57	1	19	4	0.0	0.13699999	-3.34699988	-4.55700016
          58	1	20	1	0.0	-4.12900019	-4.37699986	-3.65300012
          59	1	20	3	0.0	-5.38199997	-6.36499977	-4.14499998
          60	1	20	4	0.0	-4.98699999	-3.24300003	-3.079
          61	1	21	1	0.0	-6.08400011	-5.56599998	-6.69299984
          62	1	21	3	0.0	-5.97800016	-7.82800007	-7.49700022
          63	1	21	4	0.0	-6.48199987	-4.71199989	-7.91200018
          64	1	22	1	0.0	-3.20700002	-7.84299994	-7.71000004
          65	1	22	3	0.0	-2.8499999	-10.11499977	-7.03100014
          66	1	22	4	0.0	-1.80299997	-7.34600019	-8.05700016
          67	1	23	1	0.0	-3.22399998	-9.64900017	-4.34499979
          68	1	23	3	0.0	-4.65399981	-8.32999992	-2.93899989
          69	1	23	4	0.0	-1.83599997	-9.62199974	-3.71399999
          70	1	24	1	0.0	-5.76999998	-10.5	-1.653
          71	1	24	3	0.0	-4.37900019	-9.65499973	0.096
          72	1	24	5	0.0	-6.58670896	-10.39082678	-1.21382061
          73	1	25	1	0.0	-5.88899994	-7.37300014	0.47999999
          74	1	25	3	0.0	-8.16100025	-7.57299995	1.25100005
          75	1	25	4	0.0	-5.26999998	-6.21400023	-0.28400001
          76	1	26	1	0.0	-8.1590004	-5.03499985	2.44499993
          77	1	26	3	0.0	-7.51999998	-2.7249999	2.33999991
          78	1	26	4	0.0	-7.93300009	-5.09399986	3.9460001
          79	1	27	1	0.0	-9.6239996	-2.01200008	0.62400001
          80	1	27	3	0.0	-8.84899998	0.192	1.19400001
          81	1	27	4	0.0	-11.09799957	-1.90699995	0.22400001
          82	1	28	1	0.0	-9.17700005	-0.145	3.92000008
          83	1	28	3	0.0	-7.54400015	1.597	4.16599989
          84	1	28	4	0.0	-9.26299953	-0.76099998	5.31400013
          85	1	29	1	0.0	-5.52699995	0.226	2.85800004
          86	1	29	3	0.0	-4.94099998	2.42000008	2.0940001
          87	1	29	4	0.0	-4.59100008	-0.91500002	2.44099998
          88	1	30	1	0.0	-5.97700024	2.12299991	-0.42500001
          89	1	30	3	0.0	-6.46099997	4.47100019	-0.47600001
          90	1	30	4	0.0	-6.52600002	1.59599996	-1.76100004
          91	1	31	1	0.0	-8.43200016	4.33900023	1.45500004
          92	1	31	3	0.0	-7.75299978	6.28900003	2.68199992
          93	1	31	4	0.0	-9.77099991	3.86199999	2.02399993
          94	1	32	1	0.0	-6.02799988	4.87400007	4.34100008
          95	1	32	3	0.0	-4.46500015	6.69399977	4.26999998
          96	1	32	4	0.0	-5.546	3.75600004	5.26800013
          97	1	33	1	0.0	-3.07200003	5.69799995	2.0999999
          98	1	33	3	0.0	-2.82800007	7.97100019	1.36699998
          99	1	33	4	0.0	-2.29999995	4.71099997	1.204
         100	1	34	1	0.0	-5.02899981	7.92000008	-0.30000001
         101	1	34	3	0.0	-5.28599977	10.27299976	0.112
         102	1	34	4	0.0	-6.26300001	7.50699997	-1.08700001
         103	1	35	1	0.0	-5.95300007	9.93900013	2.78699994
         104	1	35	3	0.0	-4.69399977	11.76500034	3.71399999
         105	1	35	4	0.0	-6.76100016	9.37800026	3.96300006
         106	1	36	1	0.0	-2.2750001	10.41399956	3.66899991
         107	1	36	3	0.0	-2.02600002	11.65799999	1.63199997
         108	1	36	4	0.0	-1.19599998	9.34599972	3.56900001
         109	1	37	1	0.0	-0.95999998	13.88500023	2.86999989
         110	1	37	3	0.0	0.704	14.375	1.20899999
         111	1	37	4	0.0	-0.90100002	15.03999996	3.87800002
         112	1	38	1	0.0	2.5309999	12.53600025	2.18400002
         113	1	38	3	0.0	1.93599999	10.24100018	1.80900002
         114	1	38	4	0.0	3.57399988	12.47500038	3.29900002
         115	1	39	1	0.0	3.31500006	10.06099987	-0.59100002
         116	1	39	3	0.0	3.75	7.76300001	-0.047
         117	1	39	4	0.0	3.99799991	10.38899994	-1.93400002
         118	1	40	1	0.0	5.94399977	8.33300018	1.55400002
         119	1	40	3	0.0	5.454	6.27699995	2.69499993
         120	1	40	4	0.0	6.98600006	9.04699993	2.41700006
         121	1	41	1	0.0	3.03999996	7.14900017	3.68899989
         122	1	41	3	0.0	1.92200005	5.05700016	3.37199998
         123	1	41	5	0.0	2.48470906	6.58074634	4.74172385
         124	1	42	1	0.0	1.21500003	5.62599993	0.74599999
         125	1	42	3	0.0	1.745	3.40700006	-0.003
         126	1	42	4	0.0	0.53399998	6.4460001	-0.36500001
         127	1	43	1	0.0	4.24100018	4.09000015	-0.972
         128	1	43	3	0.0	5.10599995	1.93900001	-0.35299999
         129	1	43	4	0.0	5.4000001	4.87900019	-1.597
         130	1	44	1	0.0	5.31400013	2.5309999	2.33200002
         131	1	44	3	0.0	4.45900011	0.329	2.76099992
         132	1	44	4	0.0	5.76300001	3.2980001	3.579
         133	1	45	1	0.0	1.88399994	1.199	3.25999999
         134	1	45	3	0.0	1.29999995	-0.95899999	2.38100004
         135	1	45	4	0.0	0.63499999	2.04699993	3.51600003
         136	1	46	1	0.0	1.58299994	-0.182	-0.266
         137	1	46	3	0.0	2.34699988	-2.41199994	-0.72399998
         138	1	46	4	0.0	1.62699997	0.64600003	-1.55999994
         139	1	47	1	0.0	4.89300013	-1.97399998	0.257
         140	1	47	3	0.0	4.796	-4.28599977	0.90799999
         141	1	47	4	0.0	6.1880002	-1.34300005	0.77600002
         142	1	48	1	0.0	3.22300005	-3.78299999	3.14400005
         143	1	48	3	0.0	1.99699998	-5.82299995	2.81999993
         144	1	48	4	0.0	2.6329999	-3.10400009	4.38199997
         145	1	49	1	0.0	0.44400001	-4.80299997	0.75400001
         146	1	49	3	0.0	0.46599999	-6.85200024	-0.50199997
         147	1	49	4	0.0	-0.43099999	-3.84500003	-0.074
         148	1	50	1	0.0	3.0150001	-6.44999981	-1.51699996
         149	1	50	3	0.0	3.70600009	-8.73700047	-1.29100001
         150	1	50	4	0.0	4.13000011	-5.6960001	-2.24399996
         151	1	51	1	0.0	4.53999996	-8.46100044	1.33299994
         152	1	51	3	0.0	3.37299991	-10.35499954	2.23600006
         153	1	51	4	0.0	5.63399982	-7.89400005	2.23600006
         154	1	52	1	0.0	1.57299995	-8.81599998	3.68899989
         155	1	52	3	0.0	1.34599996	-10.57400036	5.30200005
         156	1	52	4	0.0	0.51599997	-9.51399994	2.83699989
         157	1	53	1	0.0	4.03000021	-10.55799961	6.01800013
         158	1	53	3	0.0	4.70699978	-12.65200043	5.0539999
         159	1	53	4	0.0	3.46499991	-10.25	7.40999985
         160	1	54	1	0.0	2.38000011	-13.9829998	5.7579999
         161	1	54	3	0.0	0.43200001	-13.19999981	4.59299994
         162	1	54	4	0.0	1.96500003	-14.73600006	7.03599977
         163	1	55	1	0.0	0.226	-15.44699955	2.98600006
         164	1	55	3	0.0	-0.56400001	-17.24399948	4.36499977
         165	1	55	4	0.0	0.86900002	-15.97999954	1.70200002
         166	1	56	1	0.0	-3.12400007	-17.21699905	3.30200005
         167	1	56	3	0.0	-3.921	-19.1609993	2.1730001
         168	1	56	4	0.0	-4.22399998	-16.42200089	4.01100016

Bond Coeffs

           1	60	3.816
           2	60	2.40
           3	60	2.76
           4	60	1.53
           5	60	1.09
Bonds

           1	2	1	2
           2	4	1	3
           3	1	1	4
           4	3	2	4
           5	2	4	5
           6	4	4	6
           7	1	4	7
           8	3	5	7
           9	2	7	8
          10	4	7	9
          11	1	7	10
          12	3	8	10
          13	2	10	11
          14	4	10	12
          15	1	10	13
          16	3	11	13
          17	2	13	14
          18	4	13	15
          19	1	13	16
          20	3	14	16
          21	2	16	17
          22	4	16	18
          23	1	16	19
          24	3	17	19
          25	2	19	20
          26	4	19	21
          27	1	19	22
          28	3	20	22
          29	2	22	23
          30	4	22	24
          31	1	22	25
          32	3	23	25
          33	2	25	26
          34	4	25	27
          35	1	25	28
          36	3	26	28
          37	2	28	29
          38	4	28	30
          39	1	28	31
          40	3	29	31
          41	2	31	32
          42	4	31	33
          43	1	31	34
          44	3	32	34
          45	2	34	35
          46	4	34	36
          47	1	34	37
          48	3	35	37
          49	2	37	38
          50	4	37	39
          51	1	37	40
          52	3	38	40
          53	2	40	41
          54	4	40	42
          55	1	40	43
          56	3	41	43
          57	2	43	44
          58	4	43	45
          59	1	43	46
          60	3	44	46
          61	2	46	47
          62	4	46	48
          63	1	46	49
          64	3	47	49
          65	2	49	50
          66	4	49	51
          67	1	49	52
          68	3	50	52
          69	2	52	53
          70	4	52	54
          71	1	52	55
          72	3	53	55
          73	2	55	56
          74	4	55	57
          75	1	55	58
          76	3	56	58
          77	2	58	59
          78	4	58	60
          79	1	58	61
          80	3	59	61
          81	2	61	62
          82	4	61	63
          83	1	61	64
          84	3	62	64
          85	2	64	65
          86	4	64	66
          87	1	64	67
          88	3	65	67
          89	2	67	68
          90	4	67	69
          91	1	67	70
          92	3	68	70
          93	2	70	71
          94	5	70	72
          95	1	70	73
          96	3	71	73
          97	2	73	74
          98	4	73	75
          99	1	73	76
         100	3	74	76
         101	2	76	77
         102	4	76	78
         103	1	76	79
         104	3	77	79
         105	2	79	80
         106	4	79	81
         107	1	79	82
         108	3	80	82
         109	2	82	83
         110	4	82	84
         111	1	82	85
         112	3	83	85
         113	2	85	86
         114	4	85	87
         115	1	85	88
         116	3	86	88
         117	2	88	89
         118	4	88	90
         119	1	88	91
         120	3	89	91
         121	2	91	92
         122	4	91	93
         123	1	91	94
         124	3	92	94
         125	2	94	95
         126	4	94	96
         127	1	94	97
         128	3	95	97
         129	2	97	98
         130	4	97	99
         131	1	97	100
         132	3	98	100
         133	2	100	101
         134	4	100	102
         135	1	100	103
         136	3	101	103
         137	2	103	104
         138	4	103	105
         139	1	103	106
         140	3	104	106
         141	2	106	107
         142	4	106	108
         143	1	106	109
         144	3	107	109
         145	2	109	110
         146	4	109	111
         147	1	109	112
         148	3	110	112
         149	2	112	113
         150	4	112	114
         151	1	112	115
         152	3	113	115
         153	2	115	116
         154	4	115	117
         155	1	115	118
         156	3	116	118
         157	2	118	119
         158	4	118	120
         159	1	118	121
         160	3	119	121
         161	2	121	122
         162	5	121	123
         163	1	121	124
         164	3	122	124
         165	2	124	125
         166	4	124	126
         167	1	124	127
         168	3	125	127
         169	2	127	128
         170	4	127	129
         171	1	127	130
         172	3	128	130
         173	2	130	131
         174	4	130	132
         175	1	130	133
         176	3	131	133
         177	2	133	134
         178	4	133	135
         179	1	133	136
         180	3	134	136
         181	2	136	137
         182	4	136	138
         183	1	136	139
         184	3	137	139
         185	2	139	140
         186	4	139	141
         187	1	139	142
         188	3	140	142
         189	2	142	143
         190	4	142	144
         191	1	142	145
         192	3	143	145
         193	2	145	146
         194	4	145	147
         195	1	145	148
         196	3	146	148
         197	2	148	149
         198	4	148	150
         199	1	148	151
         200	3	149	151
         201	2	151	152
         202	4	151	153
         203	1	151	154
         204	3	152	154
         205	2	154	155
         206	4	154	156
         207	1	154	157
         208	3	155	157
         209	2	157	158
         210	4	157	159
         211	1	157	160
         212	3	158	160
         213	2	160	161
         214	4	160	162
         215	1	160	163
         216	3	161	163
         217	2	163	164
         218	4	163	165
         219	1	163	166
         220	3	164	166
         221	2	166	167
         222	4	166	168

