LAMMPS protain data file

         168  atoms
         222  bonds
           0  angles
           0  dihedrals
           0  impropers

           5  atom types
           5  bond types
           0  angle types
           0  dihedral types
           0  improper types

-1000.0	1000.0	xlo xhi
-1000.0	1000.0	ylo yhi
-1000.0	1000.0	zlo zhi

Masses

           1	27.0
           2	14.0
           3	28.0
           4	60.0
           5	2.0

Atoms

           1	1	1	1	0.0	0.097	-0.68000001	-0.796
           2	1	1	3	0.0	2.19300008	-1.55799997	-0.068
           3	1	1	4	0.0	-0.39899999	0.15899999	0.42899999
           4	1	2	1	0.0	3.78200006	-0.257	-1.47800004
           5	1	2	3	0.0	4.50600004	1.86000001	-2.31100011
           6	1	2	4	0.0	4.29199982	-1.27199996	-2.55599999
           7	1	3	1	0.0	6.30100012	2.43600011	-0.68099999
           8	1	3	3	0.0	8.27499962	1.76999998	0.51599997
           9	1	3	4	0.0	5.75099993	3.53900003	0.26899999
          10	1	4	1	0.0	10.05300045	2.68400002	-0.98400003
          11	1	4	3	0.0	10.93099976	4.53599977	-2.25
          12	1	4	4	0.0	10.63300037	1.44400001	-1.71700001
          13	1	5	1	0.0	12.53100014	5.50099993	-0.58899999
          14	1	5	3	0.0	14.32999992	5.16599989	0.97899997
          15	1	5	4	0.0	11.84200001	6.80299997	-0.091
          16	1	6	1	0.0	16.29700089	5.67700005	-0.477
          17	1	6	3	0.0	17.37299919	7.14799976	-2.05100012
          18	1	6	4	0.0	16.95100021	4.25600004	-0.71899998
          19	1	7	1	0.0	18.78800011	8.50899982	-0.50199997
          20	1	7	3	0.0	20.375	8.59000015	1.30900002
          21	1	7	4	0.0	18.08200073	9.89299965	-0.43900001
          22	1	8	1	0.0	22.5170002	8.71899986	0.027
          23	1	8	3	0.0	23.81399918	9.74600029	-1.71399999
          24	1	8	4	0.0	23.14699936	7.30200005	0.145
          25	1	9	1	0.0	25.0720005	11.46100044	-0.40599999
          26	1	9	3	0.0	26.43000031	12.00599957	1.50800002
          27	1	9	4	0.0	24.40200043	12.81299973	-0.78299999
          28	1	10	1	0.0	28.71500015	11.81400013	0.50800002
          29	1	10	3	0.0	30.24300003	12.36699963	-1.26900005
          30	1	10	4	0.0	29.27899933	10.47700024	1.06099999
          31	1	11	1	0.0	31.37800026	14.36499977	-0.28299999
          32	1	11	3	0.0	32.51200104	15.37899971	1.57299995
          33	1	11	4	0.0	30.76499939	15.57699966	-1.01900005
          34	1	12	1	0.0	34.89300156	14.95400047	0.954
          35	1	12	3	0.0	36.63800049	15.04399967	-0.70099998
          36	1	12	4	0.0	35.29700089	13.79199982	1.87800002
          37	1	13	1	0.0	37.70100021	17.2310009	-0.123
          38	1	13	3	0.0	38.6269989	18.6970005	1.54900002
          39	1	13	4	0.0	37.22700119	18.20999908	-1.23199999
          40	1	14	1	0.0	41.05500031	18.13100052	1.35099995
          41	1	14	3	0.0	42.99000168	17.80400085	-0.045
          42	1	14	4	0.0	41.37900162	17.26099968	2.59899998
          43	1	15	1	0.0	44.0340004	20.0720005	0.09
          44	1	15	3	0.0	44.79100037	21.91699982	1.43900001
          45	1	15	4	0.0	43.73400116	20.74600029	-1.27900004
          46	1	16	1	0.0	47.20800018	21.32999992	1.69200003
          47	1	16	3	0.0	49.2859993	20.66799927	0.676
          48	1	16	4	0.0	47.29100037	20.78499985	3.12899995
          49	1	17	1	0.0	50.36999893	22.89800072	0.36000001
          50	1	17	3	0.0	51.00799942	25.03000069	1.28199995
          51	1	17	4	0.0	50.2879982	23.12599945	-1.204
          52	1	18	1	0.0	53.36100006	24.5359993	1.972
          53	1	18	3	0.0	55.52999878	23.6439991	1.41999996
          54	1	18	4	0.0	53.3030014	24.39900017	3.51799989
          55	1	19	1	0.0	56.70299911	25.72699928	0.68800002
          56	1	19	3	0.0	57.28499985	28.02499962	1.11300004
          57	1	19	4	0.0	56.78099823	25.63299942	-0.86299998
          58	1	20	1	0.0	59.52099991	27.7329998	2.19099998
          59	1	20	3	0.0	61.71500015	26.73800087	2.15499997
          60	1	20	4	0.0	59.27299881	28.02899933	3.69700003
          61	1	21	1	0.0	63.02399826	28.5720005	1.07099998
          62	1	21	3	0.0	63.61500168	30.90299988	0.97100002
          63	1	21	4	0.0	63.29100037	28.06500053	-0.40200001
          64	1	22	1	0.0	65.69599915	30.90500069	2.35599995
          65	1	22	3	0.0	67.84899902	29.94400024	2.84599996
          66	1	22	4	0.0	65.27400208	31.57500076	3.69400001
          67	1	23	1	0.0	69.32900238	31.4489994	1.505
          68	1	23	3	0.0	69.99099731	33.68099976	0.89399999
          69	1	23	4	0.0	69.68699646	30.5909996	0.27900001
          70	1	24	1	0.0	71.88700104	34.04399872	2.48099995
          71	1	24	3	0.0	73.93499756	33.25099945	3.45700002
          72	1	24	5	0.0	66.97853538	33.18709287	2.13276565
          73	1	25	1	0.0	75.61000061	34.36800003	1.97899997
          74	1	25	3	0.0	76.40399933	36.35900116	0.92900002
          75	1	25	4	0.0	76.1740036	33.22200012	1.07299995
          76	1	26	1	0.0	78.10299683	37.13499832	2.5769999
          77	1	26	3	0.0	79.99700165	36.62200165	3.97099996
          78	1	26	4	0.0	77.39600372	38.29499817	3.29900002
          79	1	27	1	0.0	81.8690033	37.33300018	2.4749999
          80	1	27	3	0.0	82.83999634	39.00400162	1.03900003
          81	1	27	4	0.0	82.49299622	36.01200104	1.93900001
          82	1	28	1	0.0	84.34799957	40.17100143	2.65799999
          83	1	28	3	0.0	86.04599762	40.0359993	4.36199999
          84	1	28	4	0.0	83.63300323	41.51300049	2.97199988
          85	1	29	1	0.0	88.10299683	40.35200119	2.97600007
          86	1	29	3	0.0	89.28500366	41.60599899	1.30200005
          87	1	29	4	0.0	88.80500031	38.9679985	2.84299994
          88	1	30	1	0.0	90.61799622	43.15200043	2.74300003
          89	1	30	3	0.0	92.09500122	43.46500015	4.64400005
          90	1	30	4	0.0	89.94400024	44.55500031	2.6559999
          91	1	31	1	0.0	94.31099701	43.42499924	3.46600008
          92	1	31	3	0.0	95.72299957	44.21900177	1.68299997
          93	1	31	4	0.0	94.91400146	42.03499985	3.80599999
          94	1	32	1	0.0	96.91200256	46.08599854	2.84500003
          95	1	32	3	0.0	98.15699768	46.86899948	4.75299978
          96	1	32	4	0.0	96.27899933	47.38000107	2.25900006
          97	1	33	1	0.0	100.4960022	46.54700089	3.92799997
          98	1	33	3	0.0	102.13400269	46.86600113	2.19199991
          99	1	33	4	0.0	101.01100159	45.30799866	4.7670002
         100	1	34	1	0.0	103.22499847	48.97200012	2.98300004
         101	1	34	3	0.0	104.2519989	50.2179985	4.76800013
         102	1	34	4	0.0	102.63700104	50.04600143	2.05200005
         103	1	35	1	0.0	106.66300201	49.70800018	4.35200024
         104	1	35	3	0.0	108.50299835	49.58599854	2.81399989
         105	1	35	4	0.0	107.05799866	48.68299866	5.454
         106	1	36	1	0.0	109.55400085	51.82300186	3.16799998
         107	1	36	3	0.0	110.39199829	53.48600006	4.69299984
         108	1	36	4	0.0	109.11199951	52.62200165	1.92999995
         109	1	37	1	0.0	112.82099915	52.89599991	4.71999979
         110	1	37	3	0.0	114.83399963	52.38700104	3.49900007
         111	1	37	4	0.0	113.04399872	52.18999863	6.08500004
         112	1	38	1	0.0	115.89099884	54.65100098	3.40799999
         113	1	38	3	0.0	116.58999634	56.63000107	4.54400015
         114	1	38	4	0.0	115.6989975	55.1230011	1.92700005
         115	1	39	1	0.0	118.97599792	56.09600067	5.02799988
         116	1	39	3	0.0	121.10500336	55.3030014	4.23400021
         117	1	39	4	0.0	119.01799774	55.76800156	6.57299995
         118	1	40	1	0.0	122.22899628	57.47200012	3.70300007
         119	1	40	3	0.0	122.83300018	59.70199966	4.38199997
         120	1	40	4	0.0	122.20999908	57.57600021	2.15100002
         121	1	41	1	0.0	125.13300323	59.29499817	5.27299976
         122	1	41	3	0.0	127.31800079	58.33800125	4.9749999
         123	1	41	5	0.0	116.88666569	56.64268168	5.66225272
         124	1	42	1	0.0	128.55799866	60.3030014	4.05700016
         125	1	42	3	0.0	129.13900757	62.63299942	4.21999979
         126	1	42	4	0.0	128.73399353	59.99000168	2.51799989
         127	1	43	1	0.0	131.30099487	62.47700119	5.46400023
         128	1	43	3	0.0	133.477005	61.48799896	5.68900013
         129	1	43	4	0.0	130.9940033	62.90299988	6.92600012
         130	1	44	1	0.0	134.875	63.1570015	4.46700001
         131	1	44	3	0.0	135.50100708	65.43299866	4.1170001
         132	1	44	4	0.0	135.24099731	62.45999908	3.11299992
         133	1	45	1	0.0	137.48899841	65.6269989	5.60699987
         134	1	45	3	0.0	139.59399414	64.73400116	6.34499979
         135	1	45	4	0.0	137.06700134	66.44000244	6.86600018
         136	1	46	1	0.0	141.17399597	66.04399872	4.92000008
         137	1	46	3	0.0	141.89700317	68.17700195	4.06699991
         138	1	46	4	0.0	141.6519928	65.04399872	3.83200002
         139	1	47	1	0.0	143.69799805	68.73500061	5.71000004
         140	1	47	3	0.0	145.67700195	68.06500244	6.90999985
         141	1	47	4	0.0	143.08299255	69.85099792	6.5999999
         142	1	48	1	0.0	147.44900513	68.98100281	5.40100002
         143	1	48	3	0.0	148.32600403	70.83000183	4.1329999
         144	1	48	4	0.0	148.03999329	67.74500275	4.66300011
         145	1	49	1	0.0	149.92900085	71.79499817	5.79099989
         146	1	49	3	0.0	151.72900391	71.46199799	7.35599995
         147	1	49	4	0.0	149.21899414	73.13400269	6.24900007
         148	1	50	1	0.0	153.69599915	71.97200012	5.89699984
         149	1	50	3	0.0	154.77000427	73.44300079	4.32000017
         150	1	50	4	0.0	154.32499695	70.58799744	5.579
         151	1	51	1	0.0	156.18699646	74.80400085	5.86600018
         152	1	51	3	0.0	157.77099609	74.88800049	7.64900017
         153	1	51	4	0.0	155.47799683	76.1989975	5.93499994
         154	1	52	1	0.0	159.91600037	75.01899719	6.38800001
         155	1	52	3	0.0	161.21800232	76.04599762	4.61499977
         156	1	52	4	0.0	160.58900452	73.61599731	6.47599983
         157	1	53	1	0.0	162.46899414	77.76200104	5.95200014
         158	1	53	3	0.0	163.82699585	78.30400085	7.83799982
         159	1	53	4	0.0	161.79499817	79.125	5.57700014
         160	1	54	1	0.0	166.11199951	78.1190033	6.86100006
         161	1	54	3	0.0	167.63699341	78.67299652	5.08199978
         162	1	54	4	0.0	166.69500732	76.76599884	7.43300009
         163	1	55	1	0.0	168.77200317	80.67099762	6.0630002
         164	1	55	3	0.0	169.90699768	81.68099976	7.90299988
         165	1	55	4	0.0	168.18499756	81.89199829	5.27600002
         166	1	56	1	0.0	172.28799438	81.26399994	7.29500008
         167	1	56	3	0.0	173.55400085	81.93900299	5.36100006
         168	1	56	4	0.0	172.76100159	80.11699677	8.2329998

Bond Coeffs

           1	60	3.816
           2	60	2.40
           3	60	2.76
           4	60	1.53
           5	60	1.09
Bonds

           1	2	1	2
           2	4	1	3
           3	1	1	4
           4	3	2	4
           5	2	4	5
           6	4	4	6
           7	1	4	7
           8	3	5	7
           9	2	7	8
          10	4	7	9
          11	1	7	10
          12	3	8	10
          13	2	10	11
          14	4	10	12
          15	1	10	13
          16	3	11	13
          17	2	13	14
          18	4	13	15
          19	1	13	16
          20	3	14	16
          21	2	16	17
          22	4	16	18
          23	1	16	19
          24	3	17	19
          25	2	19	20
          26	4	19	21
          27	1	19	22
          28	3	20	22
          29	2	22	23
          30	4	22	24
          31	1	22	25
          32	3	23	25
          33	2	25	26
          34	4	25	27
          35	1	25	28
          36	3	26	28
          37	2	28	29
          38	4	28	30
          39	1	28	31
          40	3	29	31
          41	2	31	32
          42	4	31	33
          43	1	31	34
          44	3	32	34
          45	2	34	35
          46	4	34	36
          47	1	34	37
          48	3	35	37
          49	2	37	38
          50	4	37	39
          51	1	37	40
          52	3	38	40
          53	2	40	41
          54	4	40	42
          55	1	40	43
          56	3	41	43
          57	2	43	44
          58	4	43	45
          59	1	43	46
          60	3	44	46
          61	2	46	47
          62	4	46	48
          63	1	46	49
          64	3	47	49
          65	2	49	50
          66	4	49	51
          67	1	49	52
          68	3	50	52
          69	2	52	53
          70	4	52	54
          71	1	52	55
          72	3	53	55
          73	2	55	56
          74	4	55	57
          75	1	55	58
          76	3	56	58
          77	2	58	59
          78	4	58	60
          79	1	58	61
          80	3	59	61
          81	2	61	62
          82	4	61	63
          83	1	61	64
          84	3	62	64
          85	2	64	65
          86	4	64	66
          87	1	64	67
          88	3	65	67
          89	2	67	68
          90	4	67	69
          91	1	67	70
          92	3	68	70
          93	2	70	71
          94	5	70	72
          95	1	70	73
          96	3	71	73
          97	2	73	74
          98	4	73	75
          99	1	73	76
         100	3	74	76
         101	2	76	77
         102	4	76	78
         103	1	76	79
         104	3	77	79
         105	2	79	80
         106	4	79	81
         107	1	79	82
         108	3	80	82
         109	2	82	83
         110	4	82	84
         111	1	82	85
         112	3	83	85
         113	2	85	86
         114	4	85	87
         115	1	85	88
         116	3	86	88
         117	2	88	89
         118	4	88	90
         119	1	88	91
         120	3	89	91
         121	2	91	92
         122	4	91	93
         123	1	91	94
         124	3	92	94
         125	2	94	95
         126	4	94	96
         127	1	94	97
         128	3	95	97
         129	2	97	98
         130	4	97	99
         131	1	97	100
         132	3	98	100
         133	2	100	101
         134	4	100	102
         135	1	100	103
         136	3	101	103
         137	2	103	104
         138	4	103	105
         139	1	103	106
         140	3	104	106
         141	2	106	107
         142	4	106	108
         143	1	106	109
         144	3	107	109
         145	2	109	110
         146	4	109	111
         147	1	109	112
         148	3	110	112
         149	2	112	113
         150	4	112	114
         151	1	112	115
         152	3	113	115
         153	2	115	116
         154	4	115	117
         155	1	115	118
         156	3	116	118
         157	2	118	119
         158	4	118	120
         159	1	118	121
         160	3	119	121
         161	2	121	122
         162	5	121	123
         163	1	121	124
         164	3	122	124
         165	2	124	125
         166	4	124	126
         167	1	124	127
         168	3	125	127
         169	2	127	128
         170	4	127	129
         171	1	127	130
         172	3	128	130
         173	2	130	131
         174	4	130	132
         175	1	130	133
         176	3	131	133
         177	2	133	134
         178	4	133	135
         179	1	133	136
         180	3	134	136
         181	2	136	137
         182	4	136	138
         183	1	136	139
         184	3	137	139
         185	2	139	140
         186	4	139	141
         187	1	139	142
         188	3	140	142
         189	2	142	143
         190	4	142	144
         191	1	142	145
         192	3	143	145
         193	2	145	146
         194	4	145	147
         195	1	145	148
         196	3	146	148
         197	2	148	149
         198	4	148	150
         199	1	148	151
         200	3	149	151
         201	2	151	152
         202	4	151	153
         203	1	151	154
         204	3	152	154
         205	2	154	155
         206	4	154	156
         207	1	154	157
         208	3	155	157
         209	2	157	158
         210	4	157	159
         211	1	157	160
         212	3	158	160
         213	2	160	161
         214	4	160	162
         215	1	160	163
         216	3	161	163
         217	2	163	164
         218	4	163	165
         219	1	163	166
         220	3	164	166
         221	2	166	167
         222	4	166	168

